<UPF version="2.0.1">
<PP_INFO>
Generated by new atomic code, or converted to UPF format
Author:
Generation date:
Pseudopotential type: NC
Element: N
Functional:  SLA  PZ   NOGX NOGC
Suggested minimum cutoff for wavefunctions:  60. Ry
Suggested minimum cutoff for charge density: 240. Ry
The Pseudo was generated with a Non-Relativistic Calculation
L component and cutoff radius for Local Potential:  0   0.0000
Valence configuration:
nl pn  l   occ       Rcut    Rcut US       E pseu
2S  0  0  2.00      1.120      0.000     0.000000
2P  0  1  3.00      0.000      0.000     0.000000
Generation configuration: not available.
</PP_INFO>
<!--
END OF HUMAN READABLE SECTION
-->
<PP_HEADER generated="Generated by new atomic code, or converted to UPF format" author="" date="" comment="" element="N " pseudo_type="NC" relativistic="no" is_ultrasoft="false" is_paw="false" is_coulomb="false" has_so="false" has_wfc="false" has_gipaw="false" paw_as_gipaw="false" core_correction="false" functional=" SLA  PZ   NOGX NOGC" z_valence="5.000000000000e0" total_psenergy="0.000000000000e0" wfc_cutoff="6.000000000000e1" rho_cutoff="2.400000000000e2" l_max="0" l_max_rho="0" l_local="0" mesh_size="161" number_of_wfc="2" number_of_proj="1"/>
<PP_MESH dx="6.250000000000e-2" mesh="161" xmin="-3.999999999999e0" rmax="5.763268478470e1" zmesh="7.000000000000e0">
<PP_R>
2.616519841250000e-3 2.785270872660000e-3 2.964905410530000e-3 3.156125380720000e-3
3.359677979430000e-3 3.576358592850000e-3 3.807013905190000e-3 4.052545207100000e-3
4.313911917470000e-3 4.592135332410000e-3 4.888302615950000e-3 5.203571048190001e-3
5.539172547390000e-3 5.896418483690001e-3 6.276704803339999e-3 6.681517483419999e-3
7.112438338270000e-3 7.571151200479999e-3 8.059448500540000e-3 8.579238270760001e-3
9.132551600959999e-3 9.721550575000000e-3 1.034853671920000e-2 1.101595999550000e-2
1.172642837480000e-2 1.248271802790000e-2 1.328778417300000e-2 1.414477262340000e-2
1.505703208030000e-2 1.602812721720000e-2 1.706185260950000e-2 1.816224756170000e-2
1.933361189090000e-2 2.058052272880000e-2 2.190785240640000e-2 2.332078749340000e-2
2.482484906430000e-2 2.642591427250000e-2 2.813023931490000e-2 2.994448387870000e-2
3.187573716410000e-2 3.393154558510000e-2 3.611994225780000e-2 3.844947838990000e-2
4.092925669430000e-2 4.356896695870000e-2 4.637892390830000e-2 4.937010751100001e-2
5.255420588160000e-2 5.594366095380000e-2 5.955171709690000e-2 6.339247286870000e-2
6.748093610590001e-2 7.183308256730001e-2 7.646591835990001e-2 8.139754639010000e-2
8.664723710180001e-2 9.223550377540001e-2 9.818418268440000e-2 1.045165184210000e-1
1.112572547240000e-1 1.184327311690000e-1 1.260709860840000e-1 1.342018661160000e-1
1.428571428570000e-1 1.520706369880000e-1 1.618783504380000e-1 1.723186070600000e-1
1.834322023840000e-1 1.952625630250000e-1 2.078559163740000e-1 2.212614712330000e-1
2.355316101000000e-1 2.507220938510000e-1 2.668922796330000e-1 2.841053527970000e-1
3.024285738020000e-1 3.219335410300000e-1 3.426964705670000e-1 3.647984940090000e-1
3.883259754940000e-1 4.133708491670000e-1 4.400309784170000e-1 4.684105382770000e-1
4.986204224950000e-1 5.307786768490001e-1 5.650109604170001e-1 6.014510365920001e-1
6.402412957630000e-1 6.815333117100000e-1 7.254884338830000e-1 7.722784178770000e-1
8.220860965720000e-1 8.751060945550000e-1 9.315455886190001e-1 9.916251173140001e-1
1.055579442700000e0 1.123658467710000e0 1.196128212590000e0 1.273271854460000e0
1.355390833770000e0 1.442806032210000e0 1.535859026580000e0 1.634913423480000e0
1.740356280100000e0 1.852599616710000e0 1.972082026580000e0 2.099270389830000e0
2.234661697740000e0 2.378784994800000e0 2.532203445920000e0 2.695516537040000e0
2.869362417600000e0 3.054420394160000e0 3.251413584790000e0 3.461111744660000e0
3.684334273880000e0 3.921953419350000e0 4.174897683030000e0 4.444155450140000e0
4.730778851240000e0 5.035887873510000e0 5.360674737090000e0 5.706408553690000e0
6.074440285720000e0 6.466208025180000e0 6.883242613010000e0 7.327173620940000e0
7.799735719020000e0 8.302775453920001e0 8.838258464340001e0 9.408277161770000e0
1.001505890670000e1 1.066097471190000e1 1.134854850750000e1 1.208046700300000e1
1.285959018580000e1 1.368896249670000e1 1.457182472610000e1 1.551162667730000e1
1.651204064670000e1 1.757697577390000e1 1.871059331580000e1 1.991732290780000e1
2.120187987180000e1 2.256928364220000e1 2.402487737880000e1 2.557434884600000e1
2.722375263690000e1 2.897953383300000e1 3.084855318720000e1 3.283811393340001e1
3.495599032350000e1 3.721045800530000e1 3.961032636040001e1 4.216497292660001e1
4.488438004080001e1 4.777917384540000e1 5.086066581010001e1 5.414089693170000e1
5.763268478470000e1
</PP_R>
<PP_RAB>
1.635324900780000e-4 1.740794295410000e-4 1.853065881580000e-4 1.972578362950000e-4
2.099798737140000e-4 2.235224120530000e-4 2.379383690750001e-4 2.532840754440000e-4
2.696194948420001e-4 2.870084582760000e-4 3.055189134970000e-4 3.252231905120000e-4
3.461982842120000e-4 3.685261552300001e-4 3.922940502090000e-4 4.175948427140000e-4
4.445273961420000e-4 4.731969500300000e-4 5.037155312840000e-4 5.362023919220000e-4
5.707844750600000e-4 6.075969109379999e-4 6.467835449490000e-4 6.884974997170000e-4
7.329017734279999e-4 7.801698767450000e-4 8.304865108090000e-4 8.840482889630000e-4
9.410645050170000e-4 1.001757951070000e-3 1.066365788100000e-3 1.135140472610000e-3
1.208350743180000e-3 1.286282670550000e-3 1.369240775400000e-3 1.457549218340000e-3
1.551553066520000e-3 1.651619642030000e-3 1.758139957180000e-3 1.871530242420000e-3
1.992233572750000e-3 2.120721599070000e-3 2.257496391110000e-3 2.403092399370000e-3
2.558078543390000e-3 2.723060434920000e-3 2.898682744270000e-3 3.085631719439999e-3
3.284637867600000e-3 3.496478809610000e-3 3.721982318560000e-3 3.962029554300000e-3
4.217558506620000e-3 4.489567660450000e-3 4.779119897490000e-3 5.087346649380001e-3
5.415452318860002e-3 5.764718985960000e-3 6.136511417780000e-3 6.532282401310001e-3
6.953578420280000e-3 7.402045698039999e-3 7.879436630219999e-3 8.387616632260000e-3
8.928571428570001e-3 9.504414811769999e-3 1.011739690240000e-2 1.076991294130000e-2
1.146451264900000e-2 1.220391018910000e-2 1.299099477340000e-2 1.382884195210000e-2
1.472072563130000e-2 1.567013086570000e-2 1.668076747710000e-2 1.775658454980000e-2
1.890178586260000e-2 2.012084631440000e-2 2.141852941040000e-2 2.279990587560000e-2
2.427037346840000e-2 2.583567807300000e-2 2.750193615110001e-2 2.927565864230000e-2
3.116377640590000e-2 3.317366730300000e-2 3.531318502610000e-2 3.759068978700000e-2
4.001508098520000e-2 4.259583198190001e-2 4.534302711770000e-2 4.826740111730000e-2
5.138038103580000e-2 5.469413090970000e-2 5.822159928870000e-2 6.197656983210001e-2
6.597371516899999e-2 7.022865423170000e-2 7.475801328690000e-2 7.957949090360001e-2
8.471192711030000e-2 9.017537701320000e-2 9.599118916140000e-2 1.021820889670000e-1
1.087722675060000e-1 1.157874760440000e-1 1.232551266610000e-1 1.312043993640000e-1
1.396663561090000e-1 1.486740621750000e-1 1.582627153700000e-1 1.684697835650000e-1
1.793351511000000e-1 1.909012746350000e-1 2.032133490490000e-1 2.163194840410000e-1
2.302708921180000e-1 2.451220887090000e-1 2.609311051900000e-1 2.777597156340000e-1
2.956736782030000e-1 3.147429920950000e-1 3.350421710680000e-1 3.566505346060000e-1
3.796525178580000e-1 4.041380015740000e-1 4.302026633130000e-1 4.579483513090000e-1
4.874834824390001e-1 5.189234658700000e-1 5.523911540210000e-1 5.880173226110000e-1
6.259411816669999e-1 6.663109194930001e-1 7.092842817170000e-1 7.550291876850000e-1
8.037243866119999e-1 8.555601560450000e-1 9.107390453810000e-1 9.694766673280000e-1
1.032002540420000e0 1.098560985870000e0 1.169412082240000e0 1.244832681740000e0
1.325117491990000e0 1.410580227640000e0 1.501554836180000e0 1.598396802870000e0
1.701484539810000e0 1.811220864560000e0 1.928034574200000e0 2.052382120840000e0
2.184749395220000e0 2.325653625330000e0 2.475645397530000e0 2.635310807910000e0
2.805273752550000e0 2.986198365340000e0 3.178791613130000e0 3.383806058230000e0
3.602042799040000e0
</PP_RAB>
</PP_MESH>
<PP_LOCAL columns="4">
-3.086944442370000e1 -3.086943243850000e1 -3.086941885750000e1 -3.086940346840001e1
-3.086938603020000e1 -3.086936627020000e1 -3.086934387940000e1 -3.086931850730000e1
-3.086928975700000e1 -3.086925717890000e1 -3.086922026320000e1 -3.086917843250000e1
-3.086913103250000e1 -3.086907732170000e1 -3.086901645990000e1 -3.086894749510000e1
-3.086886934870000e1 -3.086878079840000e1 -3.086868045920000e1 -3.086856676200000e1
-3.086843792870000e1 -3.086829194450000e1 -3.086812652670000e1 -3.086793908890000e1
-3.086772670050000e1 -3.086748604110000e1 -3.086721334860000e1 -3.086690436030000e1
-3.086655424710000e1 -3.086615753700000e1 -3.086570803070000e1 -3.086519870440000e1
-3.086462160020000e1 -3.086396770170000e1 -3.086322679320000e1 -3.086238729970000e1
-3.086143610570000e1 -3.086035834870000e1 -3.085913718500001e1 -3.085775352350000e1
-3.085618572160000e1 -3.085440923790000e1 -3.085239623590000e1 -3.085011512760000e1
-3.084753004860000e1 -3.084460025100000e1 -3.084127939710000e1 -3.083751473370000e1
-3.083324611950000e1 -3.082840487160000e1 -3.082291238600000e1 -3.081667847310000e1
-3.080959933230000e1 -3.080155506630000e1 -3.079240660390000e1 -3.078199186530000e1
-3.077012095010000e1 -3.075657007180000e1 -3.074107388300000e1 -3.072331574510000e1
-3.070291538650000e1 -3.067941326250000e1 -3.065225078080000e1 -3.062074539420000e1
-3.058405938120000e1 -3.054116095950000e1 -3.049077621520000e1 -3.043133021440000e1
-3.036087062270000e1 -3.027690804010000e1 -3.017656162020000e1 -3.005619442320000e1
-2.991136537790000e1 -2.973668814000000e1 -2.952568595010000e1 -2.927065456960000e1
-2.896255258510000e1 -2.859094802000000e1 -2.814406241710000e1 -2.760896797730000e1
-2.697200860300000e1 -2.621952882350000e1 -2.533900022010000e1 -2.432062468730000e1
-2.315945595530000e1 -2.185800138070000e1 -2.042913233530000e1 -1.889893798090000e1
-1.730891259100000e1 -1.571659672760000e1 -1.419352813680000e1 -1.281910244950000e1
-1.166866294910000e1 -1.079396030730000e1 -1.019518390150000e1 -9.790279299530001e0
-9.409572018480000e0 -8.899800144529999e0 -8.360447703549999e0 -7.853845216450000e0
-7.377972754660000e0 -6.930949688680000e0 -6.511018515160000e0 -6.116533463660000e0
-5.745950412750000e0 -5.397820598440000e0 -5.070783044810000e0 -4.763559803120000e0
-4.474950292880000e0 -4.203826757380000e0 -3.949129764530000e0 -3.709864087530000e0
-3.485094786780000e0 -3.273943571630000e0 -3.075585355010000e0 -2.889245054300000e0
-2.714194543260000e0 -2.549749810930000e0 -2.395268274840000e0 -2.250146308390000e0
-2.113816832240000e0 -1.985747143540000e0 -1.865436807580000e0 -1.752415705040000e0
-1.646242205590000e0 -1.546501431820000e0 -1.452803647080000e0 -1.364782725120000e0
-1.282094719730000e0 -1.204416527450000e0 -1.131444620260000e0 -1.062893855960000e0
-9.984963731430000e-1 -9.380005361740000e-1 -8.811699569740000e-1 -8.277825683870001e-1
-7.776297588740000e-1 -7.305155533290000e-1 -6.862558533880000e-1 -6.446777131080000e-1
-6.056186650020000e-1 -5.689260849900000e-1 -5.344565960200000e-1 -5.020755078120001e-1
-4.716562905620000e-1 -4.430800805140000e-1 -4.162352155130000e-1 -3.910167986600000e-1
-3.673262884450000e-1 -3.450711136830000e-1 -3.241643117970000e-1 -3.045241890020000e-1
-2.860740010940000e-1 -2.687416535600000e-1 -2.524594198780000e-1 -2.371636768640000e-1
-2.227946560720000e-1 -2.092962102390000e-1 -1.966155938960000e-1 -1.847032572580000e-1
-1.735126526120000e-1
</PP_LOCAL>
<PP_NONLOCAL>
<PP_BETA.1 index="1" label="2S" angular_momentum="0" cutoff_radius_index="133" cutoff_radius="1.120000000000e0" ultrasoft_cutoff_radius="0.000000000000e0">
5.782571626949999e-2 6.155519477950000e-2 6.552521263190001e-2 6.975128485530000e-2
7.424992852200001e-2 7.903872169200000e-2 8.413638285820001e-2 8.956283757829999e-2
9.533929535790000e-2 1.014883316580000e-1 1.080339827170000e-1 1.150018403710000e-1
1.224191366260000e-1 1.303148743550000e-1 1.387199221160000e-1 1.476671448520000e-1
1.571915268970000e-1 1.673303154820000e-1 1.781231667990000e-1 1.896122997580000e-1
2.018426574160000e-1 2.148620991530000e-1 2.287215723420000e-1 2.434753275660000e-1
2.591811363750000e-1 2.759004962060000e-1 2.936988788350000e-1 3.126460915280000e-1
3.328163485400000e-1 3.542887833060000e-1 3.771476017200000e-1 4.014825940110000e-1
4.273893388480000e-1 4.549696121290000e-1 4.843319746960000e-1 5.155919493890000e-1
5.488727866690000e-1 5.843057421430000e-1 6.220307625300000e-1 6.621970669220000e-1
7.049636994329999e-1 7.505003596530000e-1 7.989879968890000e-1 8.506197555680000e-1
9.056016539690001e-1 9.641537100670000e-1 1.026510766100000e0 1.092923645550000e0
1.163660325270000e0 1.239007109890000e0 1.319269969810000e0 1.404775941840000e0
1.495874610650000e0 1.592939574980000e0 1.696370119540000e0 1.806592651320000e0
1.924062198150000e0 2.049263818010000e0 2.182713560320000e0 2.324958984310000e0
2.476578938760000e0 2.638182127640000e0 2.810404685200000e0 2.993903254780000e0
3.189347771530000e0 3.397407070240000e0 3.618728095700000e0 3.853907326280000e0
4.103448810790000e0 4.367705520910000e0 4.646798467940000e0 4.940507347840000e0
5.248122373740000e0 5.568246689620000e0 5.898538298580000e0 6.235376730880000e0
6.573441850180000e0 6.905193275580000e0 7.220255582680000e0 7.504722153830000e0
7.740440093930000e0 7.904390390140000e0 7.968378983310000e0 7.899393334260000e0
7.661163444730000e0 7.217658481460000e0 6.539368466100000e0 5.613063775530000e0
4.454955107400000e0 3.125368046740000e0 1.739885878430000e0 4.678784802630000e-1
-4.934516216890000e-1 -9.784974495810001e-1 -9.410329662530000e-1 -5.363043086400000e-1
-1.183074049940000e-1 0.000000000000000e0 0.000000000000000e0 0.000000000000000e0
0.000000000000000e0 0.000000000000000e0 0.000000000000000e0 0.000000000000000e0
0.000000000000000e0 0.000000000000000e0 0.000000000000000e0 0.000000000000000e0
0.000000000000000e0 0.000000000000000e0 0.000000000000000e0 0.000000000000000e0
0.000000000000000e0 0.000000000000000e0 0.000000000000000e0 0.000000000000000e0
0.000000000000000e0 0.000000000000000e0 0.000000000000000e0 0.000000000000000e0
0.000000000000000e0 0.000000000000000e0 0.000000000000000e0 0.000000000000000e0
0.000000000000000e0 0.000000000000000e0 0.000000000000000e0 0.000000000000000e0
0.000000000000000e0 0.000000000000000e0 0.000000000000000e0 0.000000000000000e0
0.000000000000000e0 0.000000000000000e0 0.000000000000000e0 0.000000000000000e0
0.000000000000000e0 0.000000000000000e0 0.000000000000000e0 0.000000000000000e0
0.000000000000000e0 0.000000000000000e0 0.000000000000000e0 0.000000000000000e0
0.000000000000000e0 0.000000000000000e0 0.000000000000000e0 0.000000000000000e0
0.000000000000000e0 0.000000000000000e0 0.000000000000000e0 0.000000000000000e0
0.000000000000000e0 0.000000000000000e0 0.000000000000000e0 0.000000000000000e0
0.000000000000000e0 0.000000000000000e0 0.000000000000000e0 0.000000000000000e0
0.000000000000000e0
</PP_BETA.1>
<PP_DIJ>
7.381333001930001e-1
</PP_DIJ>
</PP_NONLOCAL>
<PP_PSWFC>
<PP_CHI.1 index="1" label="2S" l="0" occupation="2.000000000000e0" n="0" pseudo_energy="0.000000000000e0" cutoff_radius="1.120000000000e0" ultrasoft_cutoff_radius="0.000000000000e0">
2.256372600000000e-3 2.401897700000000e-3 2.556808700000000e-3 2.721711000000000e-3
2.897249100000000e-3 3.084108900000000e-3 3.283020800000000e-3 3.494762300000000e-3
3.720161000000000e-3 3.960097800000000e-3 4.215510600000000e-3 4.487398000000001e-3
4.776822600000000e-3 5.084916100000000e-3 5.412883000000001e-3 5.762005700000000e-3
6.133649300000000e-3 6.529267200000000e-3 6.950406800000000e-3 7.398715500000000e-3
7.875947000000000e-3 8.383968800000002e-3 8.924768900000000e-3 9.500464200000000e-3
1.011330900000000e-2 1.076570300000000e-2 1.146020100000000e-2 1.219952700000000e-2
1.298657700000000e-2 1.382443900000000e-2 1.471639900000000e-2 1.566596100000000e-2
1.667685500000000e-2 1.775305300000000e-2 1.889879200000000e-2 2.011858100000000e-2
2.141723100000000e-2 2.279986600000000e-2 2.427195000000000e-2 2.583931000000000e-2
2.750815800000000e-2 2.928512400000000e-2 3.117728000000000e-2 3.319217800000001e-2
3.533787800000000e-2 3.762299400000000e-2 4.005672900000000e-2 4.264892400000000e-2
4.541010900000000e-2 4.835155599999999e-2 5.148534099999999e-2 5.482441200000000e-2
5.838266500000000e-2 6.217502600000000e-2 6.621755000000000e-2 7.052752299999999e-2
7.512358299999999e-2 8.002586000000001e-2 8.525612900000000e-2 9.083798699999999e-2
9.679705700000001e-2 1.031612200000000e-1 1.099609100000000e-1 1.172293700000000e-1
1.250030800000000e-1 1.333221500000000e-1 1.422307900000000e-1 1.517779100000000e-1
1.620177700000000e-1 1.730107300000000e-1 1.848241100000000e-1 1.975332000000000e-1
2.112223600000000e-1 2.259862000000000e-1 2.419308600000000e-1 2.591752700000000e-1
2.778522800000000e-1 2.981093500000000e-1 3.201086500000000e-1 3.440257100000000e-1
3.700460300000000e-1 3.983582600000000e-1 4.291422600000000e-1 4.625497000000000e-1
4.986744200000000e-1 5.375094400000000e-1 5.788882700000000e-1 6.224107000000000e-1
6.673584999999999e-1 7.126167400000000e-1 7.566302299999999e-1 7.974398500000000e-1
8.328486000000000e-1 8.607446800000000e-1 8.795373600000001e-1 8.885422300000000e-1
8.880406700000000e-1 8.787990400000000e-1 8.613780100000000e-1 8.362690400000000e-1
8.041138199999999e-1 7.657051099999999e-1 7.219602800000001e-1 6.738908000000000e-1
6.225692400000000e-1 5.690952400000000e-1 5.145616899999999e-1 4.600224600000001e-1
4.064625000000000e-1 3.547714800000000e-1 3.057215300000000e-1 2.599498900000000e-1
2.179471200000000e-1 1.800512000000000e-1 1.464479900000000e-1 1.171778500000000e-1
9.214826199999999e-2 7.115167700000001e-2 5.388743900000001e-2 3.998643700000000e-2
2.903675500000000e-2 2.060861800000000e-2 1.427697900000000e-2 9.640413700000000e-3
6.335399200000000e-3 4.045547099999999e-3 2.505921400000000e-3 1.502999600000000e-3
8.711926300000000e-4 4.870126200000000e-4 2.619889200000000e-4 1.353076400000000e-4
6.692167800000002e-5 3.161162400000000e-5 1.422020500000000e-5 6.072656199999999e-6
2.453116200000000e-6 9.344580599999999e-7 3.345965699999999e-7 1.127591600000000e-7
3.766310100000000e-8 1.169806300000000e-8 3.362855499999999e-9 8.902874400000000e-10
2.159094800000000e-10 4.769528200000001e-11 9.539504400000000e-12 1.716479800000000e-12
2.759627000000000e-13 3.935555899999999e-14 4.940235200000000e-15 5.413776000000001e-16
5.134035100000000e-17 4.174194600000000e-18 2.880912600000001e-19 1.670094900000000e-20
8.041186000000000e-22 3.177357400000000e-23 1.017285200000000e-24 2.603495500000000e-26
5.249705900000002e-28
</PP_CHI.1>
<PP_CHI.2 index="2" label="2P" l="1" occupation="3.000000000000e0" n="0" pseudo_energy="0.000000000000e0" cutoff_radius="6.909546190236e-310" ultrasoft_cutoff_radius="6.909546190236e-310">
2.897399900000000e-5 3.283177600000000e-5 3.720319100000000e-5 4.215662900000000e-5
4.776957900000000e-5 5.412984500000000e-5 6.133692000000000e-5 6.950353900000001e-5
7.875744800000001e-5 8.924339099999999e-5 1.011253800000000e-4 1.145892700000000e-4
1.298456100000000e-4 1.471330300000000e-4 1.667218600000000e-4 1.889184200000000e-4
2.140698000000000e-4 2.425692500000000e-4 2.748623300000000e-4 3.114538700000000e-4
3.529158099999999e-4 3.998961800000000e-4 4.531291199999999e-4 5.134463499999999e-4
5.817901300000000e-4 6.592278700000000e-4 7.469687400000000e-4 8.463824199999998e-4
9.590203600000001e-4 1.086639800000000e-3 1.231231000000000e-3 1.395047700000000e-3
1.580642400000000e-3 1.790905100000000e-3 2.029108000000000e-3 2.298955200000000e-3
2.604639700000000e-3 2.950907100000000e-3 3.343127200000000e-3 3.787375300000000e-3
4.290523500000000e-3 4.860342999999999e-3 5.505619600000000e-3 6.236283199999999e-3
7.063552400000001e-3 8.000097100000001e-3 9.060219499999999e-3 1.026005600000000e-2
1.161780200000000e-2 1.315396000000000e-2 1.489161400000000e-2 1.685673500000000e-2
1.907850700000000e-2 2.158969100000000e-2 2.442701300000000e-2 2.763157900000000e-2
3.124932100000000e-2 3.533145500000000e-2 3.993495500000000e-2 4.512302800000001e-2
5.096557100000000e-2 5.753959000000000e-2 6.492954700000000e-2 7.322759899999999e-2
8.253367200000000e-2 9.295529600000002e-2 1.046071300000000e-1 1.176100500000000e-1
1.320896600000000e-1 1.481741300000000e-1 1.659910400000000e-1 1.856632000000000e-1
2.073030500000000e-1 2.310055200000000e-1 2.568391300000000e-1 2.848352100000000e-1
3.149752300000000e-1 3.471766000000000e-1 3.812774700000000e-1 4.170217000000000e-1
4.540457900000000e-1 4.918702300000001e-1 5.298986700000000e-1 5.674285000000000e-1
6.036768200000000e-1 6.378244100000000e-1 6.690781900000000e-1 6.967483400000000e-1
7.203306000000000e-1 7.395776200000000e-1 7.545377000000000e-1 7.655368200000000e-1
7.730839000000000e-1 7.776947400000001e-1 7.796626800000000e-1 7.788625000000000e-1
7.747488300000001e-1 7.667067300000000e-1 7.545479700000000e-1 7.383682900000000e-1
7.183501300000001e-1 6.947390400000000e-1 6.678366900000000e-1 6.379927600000000e-1
6.055964000000000e-1 5.710674800000000e-1 5.348480900000000e-1 4.973943400000000e-1
4.591684600000000e-1 4.206313100000000e-1 3.822349100000000e-1 3.444150800000000e-1
3.075839300000000e-1 2.721223800000000e-1 2.383726100000000e-1 2.066309600000000e-1
1.771414600000000e-1 1.500904600000000e-1 1.256029300000000e-1 1.037408100000000e-1
8.450356599999999e-2 6.783147100000000e-2 5.361118400000001e-2 4.168364100000000e-2
3.185368300000000e-2 2.390082700000000e-2 1.759043500000000e-2 1.268454300000000e-2
8.951627400000001e-3 6.174746799999999e-3 4.157674399999999e-3 2.728847400000000e-3
1.743184900000000e-3 1.082008000000000e-3 6.514321399999999e-4 3.796751600000001e-4
2.137556500000000e-4 1.161008500000000e-4 6.079706400000001e-5 3.083090800000000e-5
1.558122000000000e-5 7.525940200000001e-6 3.463989600000001e-6 1.514535100000000e-6
6.269202200000001e-7 2.448080400000000e-7 8.984022999999999e-8 3.085984700000000e-8
9.879343200000001e-9 2.934187800000000e-9 8.045631100000000e-10 2.026263700000000e-10
4.661250100000000e-11 9.737168400000002e-12 1.835593100000000e-12 3.102051300000000e-13
4.666381700000001e-14 6.201584400000000e-15 7.223343999999999e-16 7.311146000000001e-17
6.372415600000001e-18
</PP_CHI.2>
</PP_PSWFC>
<PP_RHOATOM>
1.018495309790000e-5 1.154145889910000e-5 1.307869368910000e-5 1.482075307910000e-5
1.679495049290000e-5 1.903224553450000e-5 2.156773779970000e-5 2.444121929280000e-5
2.769780393870000e-5 3.138864231959999e-5 3.557173826490000e-5 4.031287372320000e-5
4.568664795109999e-5 5.177768787360000e-5 5.868199327920001e-5 6.650848988190000e-5
7.538078510860000e-5 8.543917986109999e-5 9.684295727229999e-5 1.097729926390000e-4
1.244347310000000e-4 1.410616165430000e-4 1.599189778350000e-4 1.813085214940000e-4
2.055734771250000e-4 2.331044663220000e-4 2.643463008159999e-4 2.998060076500000e-4
3.400615245070000e-4 3.857725854940000e-4 4.376925883799999e-4 4.966831423630000e-4
5.637302765719999e-4 6.399638048730000e-4 7.266805159459999e-4 8.253701879419999e-4
9.377480113150000e-4 1.065791337370000e-3 1.211784612030000e-3 1.378372517540000e-3
1.568623288820000e-3 1.786105777620000e-3 2.034981117940000e-3 2.320115045220000e-3
2.647212560610001e-3 3.022984015880000e-3 3.455345808520000e-3 3.953667684080001e-3
4.529075968720000e-3 5.194825926290000e-3 5.966761178350000e-3 6.863880846869998e-3
7.909039433050000e-3 9.129811988629999e-3 1.055956474830000e-2 1.223877547510000e-2
1.421666563440000e-2 1.655321167470000e-2 1.932161695670000e-2 2.261134273210000e-2
2.653180876980000e-2 3.121688787590000e-2 3.683034167690000e-2 4.357229414710001e-2
5.168696106040001e-2 6.147165252460000e-2 7.328715018860001e-2 8.756943951090001e-2
1.048425504280000e-1 1.257321437940000e-1 1.509789793550000e-1 1.814512017070000e-1
2.181534343460000e-1 2.622301759920000e-1 3.149600981380000e-1 3.777369317260000e-1
4.520319655430000e-1 5.393331438780001e-1 6.410566229980001e-1 7.584286730950000e-1
8.923408668880001e-1 1.043187576100000e0 1.210703960040000e0 1.393829757780000e0
1.590629463340000e0 1.798292730150000e0 2.013220131290000e0 2.231164906830000e0
2.447363254930000e0 2.656570404270000e0 2.852960032060000e0 3.029960497060000e0
3.180249730360000e0 3.296190134170000e0 3.370793619030000e0 3.398894970710000e0
3.377939711910000e0 3.308093134890000e0 3.191972069320000e0 3.034255009560000e0
2.841278798840000e0 2.620595632060000e0 2.380470825330000e0 2.129361906090000e0
1.875425916270000e0 1.626092984520000e0 1.387734903760000e0 1.165444715800000e0
9.629305517890000e-1 7.825177029000000e-1 6.252418870790000e-1 4.910131326160000e-1
3.788255162150000e-1 2.869886383330000e-1 2.133585311450000e-1 1.555503579530000e-1
1.111198949320000e-1 7.770656082890000e-2 5.313600023770000e-2 3.548429726630000e-2
2.310882428200000e-2 1.465275564580000e-2 9.030141408380000e-3 5.398452933660001e-3
3.124245928040001e-3 1.746481496530000e-3 9.408294945940000e-4 4.872109089520000e-4
2.419128525220001e-4 1.148568567160000e-4 5.199604563769999e-5 2.237644071230000e-5
9.125037808740000e-6 3.514222525740001e-6 1.273495927540000e-6 4.325334356699999e-7
1.370864692790000e-7 4.043996853589999e-8 1.108907288280000e-8 2.851660093570000e-9
7.283260870840000e-10 1.699196013710000e-10 3.599769446430000e-11 6.881451292619999e-12
1.179086979970000e-12 1.797929338960000e-13 2.421380096140000e-14 2.856990476480000e-15
2.928042663419999e-16 2.582837414010001e-17 1.941965393970000e-18 1.231723374590000e-19
6.518175748430001e-21 2.844373453500001e-22 1.010820608630000e-23 2.886816680350001e-25
6.532535451029997e-27 1.153789472110000e-28 1.565300956270000e-30 1.603585675000000e-32
1.218230417370001e-34
</PP_RHOATOM>
</UPF>
